    3    3    1    1
  0.1098627E+03  0.3561721E-09  0.3561721E-09  0.3000000E-08  0.5000000E-15
  1.000000000000000E-004
  CAR 
 noscf                                   
     26      1    600
 
  0.3333333E+00  0.3333333E+00  0.0000000E+00  0.1000000E+01
      1        -62.599153   1.000000
      2        -62.599142   1.000000
      3        -38.368004   1.000000
      4        -38.360567   1.000000
      5        -35.962465   1.000000
      6        -35.953620   1.000000
      7        -35.947720   1.000000
      8        -35.946350   1.000000
      9        -12.242756   1.000000
     10        -12.208650   1.000000
     11        -12.004718   1.000000
     12        -12.001935   1.000000
     13         -6.525260   1.000000
     14         -6.415951   1.000000
     15         -6.209918   1.000000
     16         -6.067962   1.000000
     17         -5.831495   1.000000
     18         -5.531871   1.000000
     19         -5.206885   1.000000
     20         -4.802345   1.000000
     21         -4.681752   1.000000
     22         -4.621036   1.000000
     23         -3.660669   1.000000
     24         -3.632066   1.000000
     25         -2.029695   1.000000
     26         -1.815307   1.000000
     27         -0.875015   0.000000
     28         -0.842180   0.000000
     29         -0.099208   0.000000
     30         -0.034942   0.000000
     31          0.474431   0.000000
     32          0.607678   0.000000
     33          1.980062   0.000000
     34          2.047924   0.000000
     35          3.082268   0.000000
     36          3.128643   0.000000
     37          3.137432   0.000000
     38          3.188457   0.000000
     39          5.322171   0.000000
     40          5.368029   0.000000
     41          6.313585   0.000000
     42          6.325720   0.000000
     43          6.342204   0.000000
     44          6.369997   0.000000
     45          7.212110   0.000000
     46          7.269886   0.000000
     47          7.466819   0.000000
     48          7.488613   0.000000
     49          7.660986   0.000000
     50          7.714897   0.000000
     51          8.150198   0.000000
     52          8.151341   0.000000
     53          8.191810   0.000000
     54          8.196926   0.000000
     55          8.215300   0.000000
     56          8.215845   0.000000
     57          8.219383   0.000000
     58          8.226260   0.000000
     59          8.288844   0.000000
     60          8.289536   0.000000
     61          8.543562   0.000000
     62          8.543722   0.000000
     63          8.555000   0.000000
     64          8.556458   0.000000
     65          8.841938   0.000000
     66          8.855630   0.000000
     67          8.860073   0.000000
     68          8.866652   0.000000
     69          8.875829   0.000000
     70          8.883034   0.000000
     71          8.981626   0.000000
     72          9.030394   0.000000
     73          9.387722   0.000000
     74          9.470196   0.000000
     75          9.528098   0.000000
     76          9.564511   0.000000
     77          9.594566   0.000000
     78          9.595017   0.000000
     79          9.668451   0.000000
     80          9.788275   0.000000
     81          9.814777   0.000000
     82          9.880402   0.000000
     83          9.881811   0.000000
     84          9.981356   0.000000
     85         10.100469   0.000000
     86         10.112437   0.000000
     87         10.478556   0.000000
     88         10.492057   0.000000
     89         10.499556   0.000000
     90         10.528626   0.000000
     91         10.555745   0.000000
     92         10.583826   0.000000
     93         10.883349   0.000000
     94         10.885044   0.000000
     95         11.016225   0.000000
     96         11.016250   0.000000
     97         11.640610   0.000000
     98         11.656240   0.000000
     99         11.715684   0.000000
    100         11.740803   0.000000
    101         12.030664   0.000000
    102         12.032674   0.000000
    103         12.082429   0.000000
    104         12.100589   0.000000
    105         12.164535   0.000000
    106         12.208594   0.000000
    107         12.335138   0.000000
    108         12.338210   0.000000
    109         12.827063   0.000000
    110         12.855498   0.000000
    111         13.538422   0.000000
    112         13.547057   0.000000
    113         13.636885   0.000000
    114         13.641879   0.000000
    115         13.660978   0.000000
    116         13.687192   0.000000
    117         13.980266   0.000000
    118         14.002046   0.000000
    119         14.032651   0.000000
    120         14.034296   0.000000
    121         15.026654   0.000000
    122         15.032247   0.000000
    123         15.704544   0.000000
    124         15.728072   0.000000
    125         15.758981   0.000000
    126         15.772388   0.000000
    127         15.841214   0.000000
    128         15.871378   0.000000
    129         15.883848   0.000000
    130         15.911130   0.000000
    131         16.161283   0.000000
    132         16.168325   0.000000
    133         16.608675   0.000000
    134         16.641278   0.000000
    135         17.307013   0.000000
    136         17.328971   0.000000
    137         17.367845   0.000000
    138         17.428090   0.000000
    139         17.433660   0.000000
    140         17.475101   0.000000
    141         17.745229   0.000000
    142         17.790966   0.000000
    143         18.068372   0.000000
    144         18.100547   0.000000
    145         18.109446   0.000000
    146         18.122096   0.000000
    147         18.715170   0.000000
    148         18.719596   0.000000
    149         18.826278   0.000000
    150         18.829780   0.000000
    151         18.900723   0.000000
    152         18.922166   0.000000
    153         19.029357   0.000000
    154         19.079898   0.000000
    155         19.923501   0.000000
    156         19.931253   0.000000
    157         20.409087   0.000000
    158         20.418834   0.000000
    159         20.577683   0.000000
    160         20.589667   0.000000
    161         20.610778   0.000000
    162         20.701768   0.000000
    163         20.735389   0.000000
    164         20.810198   0.000000
    165         20.874921   0.000000
    166         20.997678   0.000000
    167         21.404615   0.000000
    168         21.462631   0.000000
    169         21.543611   0.000000
    170         21.574467   0.000000
    171         21.648735   0.000000
    172         21.686123   0.000000
    173         21.871539   0.000000
    174         21.874071   0.000000
    175         22.376183   0.000000
    176         22.446236   0.000000
    177         22.466364   0.000000
    178         22.569948   0.000000
    179         23.142414   0.000000
    180         23.154501   0.000000
    181         23.166294   0.000000
    182         23.210251   0.000000
    183         23.312546   0.000000
    184         23.323754   0.000000
    185         23.408906   0.000000
    186         23.477695   0.000000
    187         23.484954   0.000000
    188         23.524386   0.000000
    189         23.524435   0.000000
    190         23.528498   0.000000
    191         23.598507   0.000000
    192         23.613257   0.000000
    193         23.642430   0.000000
    194         23.643578   0.000000
    195         23.982952   0.000000
    196         23.983940   0.000000
    197         23.987368   0.000000
    198         23.993312   0.000000
    199         24.027803   0.000000
    200         24.039762   0.000000
    201         24.040282   0.000000
    202         24.041852   0.000000
    203         24.352136   0.000000
    204         24.376423   0.000000
    205         24.388449   0.000000
    206         24.393600   0.000000
    207         24.400983   0.000000
    208         24.408471   0.000000
    209         24.527325   0.000000
    210         24.588934   0.000000
    211         24.592140   0.000000
    212         24.595443   0.000000
    213         24.604994   0.000000
    214         24.607773   0.000000
    215         24.947348   0.000000
    216         24.964220   0.000000
    217         24.967127   0.000000
    218         24.988305   0.000000
    219         24.990618   0.000000
    220         25.051756   0.000000
    221         25.096210   0.000000
    222         25.098032   0.000000
    223         25.274890   0.000000
    224         25.278306   0.000000
    225         25.343116   0.000000
    226         25.432175   0.000000
    227         25.460499   0.000000
    228         25.479652   0.000000
    229         25.579161   0.000000
    230         25.582571   0.000000
    231         25.840673   0.000000
    232         25.840717   0.000000
    233         26.003221   0.000000
    234         26.054268   0.000000
    235         26.079055   0.000000
    236         26.082172   0.000000
    237         26.395784   0.000000
    238         26.397143   0.000000
    239         26.557926   0.000000
    240         26.559621   0.000000
    241         26.560733   0.000000
    242         26.671151   0.000000
    243         26.797881   0.000000
    244         26.837235   0.000000
    245         26.894797   0.000000
    246         26.905935   0.000000
    247         27.028076   0.000000
    248         27.116806   0.000000
    249         27.180994   0.000000
    250         27.228265   0.000000
    251         27.234641   0.000000
    252         27.240214   0.000000
    253         27.379335   0.000000
    254         27.458706   0.000000
    255         27.493774   0.000000
    256         27.494738   0.000000
    257         27.640645   0.000000
    258         27.661528   0.000000
    259         27.959250   0.000000
    260         28.065702   0.000000
    261         28.245218   0.000000
    262         28.261510   0.000000
    263         28.273732   0.000000
    264         28.319315   0.000000
    265         28.554651   0.000000
    266         28.568138   0.000000
    267         28.811361   0.000000
    268         28.849991   0.000000
    269         28.867684   0.000000
    270         28.872873   0.000000
    271         28.915499   0.000000
    272         28.921306   0.000000
    273         29.048362   0.000000
    274         29.083233   0.000000
    275         29.239192   0.000000
    276         29.260678   0.000000
    277         29.319301   0.000000
    278         29.339596   0.000000
    279         29.420234   0.000000
    280         29.458476   0.000000
    281         29.574162   0.000000
    282         29.576400   0.000000
    283         29.579885   0.000000
    284         29.609132   0.000000
    285         29.625525   0.000000
    286         29.646511   0.000000
    287         29.920889   0.000000
    288         29.975769   0.000000
    289         29.980458   0.000000
    290         29.983416   0.000000
    291         30.156887   0.000000
    292         30.173269   0.000000
    293         30.738115   0.000000
    294         30.774984   0.000000
    295         30.864914   0.000000
    296         30.879961   0.000000
    297         31.044501   0.000000
    298         31.047088   0.000000
    299         31.178950   0.000000
    300         31.243406   0.000000
    301         31.403432   0.000000
    302         31.429705   0.000000
    303         31.784163   0.000000
    304         31.785269   0.000000
    305         31.927895   0.000000
    306         31.928899   0.000000
    307         32.267259   0.000000
    308         32.300736   0.000000
    309         32.360955   0.000000
    310         32.362138   0.000000
    311         32.381741   0.000000
    312         32.403711   0.000000
    313         32.469678   0.000000
    314         32.486577   0.000000
    315         32.547970   0.000000
    316         32.584362   0.000000
    317         33.103137   0.000000
    318         33.124390   0.000000
    319         33.222011   0.000000
    320         33.240465   0.000000
    321         33.270281   0.000000
    322         33.276034   0.000000
    323         33.627731   0.000000
    324         33.646660   0.000000
    325         33.891467   0.000000
    326         33.928130   0.000000
    327         33.957542   0.000000
    328         33.958077   0.000000
    329         34.577038   0.000000
    330         34.577052   0.000000
    331         34.754696   0.000000
    332         34.813666   0.000000
    333         35.329401   0.000000
    334         35.330879   0.000000
    335         35.523450   0.000000
    336         35.538702   0.000000
    337         35.621797   0.000000
    338         35.643387   0.000000
    339         35.681754   0.000000
    340         35.737614   0.000000
    341         35.954897   0.000000
    342         35.984628   0.000000
    343         36.012352   0.000000
    344         36.042078   0.000000
    345         36.246751   0.000000
    346         36.246957   0.000000
    347         36.367787   0.000000
    348         36.372175   0.000000
    349         36.544353   0.000000
    350         36.547014   0.000000
    351         36.586712   0.000000
    352         36.615084   0.000000
    353         36.653620   0.000000
    354         36.772141   0.000000
    355         36.781742   0.000000
    356         36.798117   0.000000
    357         37.261894   0.000000
    358         37.314639   0.000000
    359         37.490967   0.000000
    360         37.497246   0.000000
    361         37.541793   0.000000
    362         37.589406   0.000000
    363         37.592979   0.000000
    364         37.595844   0.000000
    365         37.952186   0.000000
    366         37.954590   0.000000
    367         38.020304   0.000000
    368         38.033936   0.000000
    369         38.202534   0.000000
    370         38.213524   0.000000
    371         38.242470   0.000000
    372         38.261038   0.000000
    373         38.423281   0.000000
    374         38.438627   0.000000
    375         38.646038   0.000000
    376         38.656044   0.000000
    377         38.954459   0.000000
    378         38.954665   0.000000
    379         39.041256   0.000000
    380         39.061019   0.000000
    381         39.116462   0.000000
    382         39.142418   0.000000
    383         39.180980   0.000000
    384         39.210623   0.000000
    385         39.213224   0.000000
    386         39.222245   0.000000
    387         39.244865   0.000000
    388         39.269697   0.000000
    389         39.628376   0.000000
    390         39.630637   0.000000
    391         39.638605   0.000000
    392         39.648721   0.000000
    393         39.649572   0.000000
    394         39.652285   0.000000
    395         39.687064   0.000000
    396         39.697829   0.000000
    397         39.700350   0.000000
    398         39.701341   0.000000
    399         39.746888   0.000000
    400         39.750222   0.000000
    401         39.809632   0.000000
    402         39.809847   0.000000
    403         39.820468   0.000000
    404         39.821103   0.000000
    405         39.825842   0.000000
    406         39.827510   0.000000
    407         39.842255   0.000000
    408         39.844682   0.000000
    409         39.845520   0.000000
    410         39.858075   0.000000
    411         39.892031   0.000000
    412         39.894160   0.000000
    413         40.005818   0.000000
    414         40.026523   0.000000
    415         40.045116   0.000000
    416         40.053210   0.000000
    417         40.057090   0.000000
    418         40.057370   0.000000
    419         40.093744   0.000000
    420         40.096977   0.000000
    421         40.113337   0.000000
    422         40.120654   0.000000
    423         40.214799   0.000000
    424         40.218290   0.000000
    425         40.313205   0.000000
    426         40.316342   0.000000
    427         40.353600   0.000000
    428         40.356937   0.000000
    429         40.359991   0.000000
    430         40.361807   0.000000
    431         40.383593   0.000000
    432         40.384133   0.000000
    433         40.603112   0.000000
    434         40.611488   0.000000
    435         40.621056   0.000000
    436         40.623924   0.000000
    437         40.638596   0.000000
    438         40.639468   0.000000
    439         40.826430   0.000000
    440         40.843697   0.000000
    441         40.868978   0.000000
    442         40.876387   0.000000
    443         40.880361   0.000000
    444         40.882718   0.000000
    445         40.892760   0.000000
    446         40.896451   0.000000
    447         41.005405   0.000000
    448         41.015313   0.000000
    449         41.051310   0.000000
    450         41.067890   0.000000
    451         41.160001   0.000000
    452         41.160046   0.000000
    453         41.276670   0.000000
    454         41.276891   0.000000
    455         41.315410   0.000000
    456         41.320463   0.000000
    457         41.470033   0.000000
    458         41.472004   0.000000
    459         41.559820   0.000000
    460         41.563626   0.000000
    461         41.564070   0.000000
    462         41.579810   0.000000
    463         41.806311   0.000000
    464         41.830319   0.000000
    465         41.881235   0.000000
    466         41.882775   0.000000
    467         41.939745   0.000000
    468         41.946507   0.000000
    469         41.951572   0.000000
    470         41.954773   0.000000
    471         41.955895   0.000000
    472         41.978437   0.000000
    473         42.013072   0.000000
    474         42.024446   0.000000
    475         42.114288   0.000000
    476         42.134601   0.000000
    477         42.148133   0.000000
    478         42.148535   0.000000
    479         42.149800   0.000000
    480         42.162990   0.000000
    481         42.408345   0.000000
    482         42.423206   0.000000
    483         42.527470   0.000000
    484         42.529418   0.000000
    485         42.630525   0.000000
    486         42.637930   0.000000
    487         42.747244   0.000000
    488         42.750629   0.000000
    489         43.000042   0.000000
    490         43.000136   0.000000
    491         43.147707   0.000000
    492         43.151762   0.000000
    493         43.166464   0.000000
    494         43.168915   0.000000
    495         43.176084   0.000000
    496         43.187994   0.000000
    497         43.291461   0.000000
    498         43.301992   0.000000
    499         43.350884   0.000000
    500         43.369165   0.000000
    501         43.377881   0.000000
    502         43.379984   0.000000
    503         43.518932   0.000000
    504         43.523329   0.000000
    505         43.577564   0.000000
    506         43.605513   0.000000
    507         43.734445   0.000000
    508         43.740226   0.000000
    509         43.775549   0.000000
    510         43.800770   0.000000
    511         43.826857   0.000000
    512         43.848545   0.000000
    513         43.955551   0.000000
    514         43.982839   0.000000
    515         44.122711   0.000000
    516         44.131136   0.000000
    517         44.214168   0.000000
    518         44.214635   0.000000
    519         44.314263   0.000000
    520         44.324617   0.000000
    521         44.528620   0.000000
    522         44.536500   0.000000
    523         44.853515   0.000000
    524         44.853811   0.000000
    525         44.945393   0.000000
    526         44.946257   0.000000
    527         44.968786   0.000000
    528         45.019044   0.000000
    529         45.106379   0.000000
    530         45.119559   0.000000
    531         45.202260   0.000000
    532         45.217097   0.000000
    533         45.230374   0.000000
    534         45.265721   0.000000
    535         45.543651   0.000000
    536         45.559240   0.000000
    537         45.601183   0.000000
    538         45.633648   0.000000
    539         45.662617   0.000000
    540         45.673327   0.000000
    541         45.726639   0.000000
    542         45.738478   0.000000
    543         45.802060   0.000000
    544         45.805489   0.000000
    545         46.019118   0.000000
    546         46.029991   0.000000
    547         46.265130   0.000000
    548         46.280908   0.000000
    549         46.291383   0.000000
    550         46.319887   0.000000
    551         46.345959   0.000000
    552         46.365005   0.000000
    553         46.478159   0.000000
    554         46.479331   0.000000
    555         46.482033   0.000000
    556         46.482494   0.000000
    557         46.651666   0.000000
    558         46.654514   0.000000
    559         46.659660   0.000000
    560         46.681100   0.000000
    561         46.809637   0.000000
    562         46.831767   0.000000
    563         47.045662   0.000000
    564         47.053857   0.000000
    565         47.097509   0.000000
    566         47.099303   0.000000
    567         47.298874   0.000000
    568         47.346622   0.000000
    569         47.593471   0.000000
    570         47.595521   0.000000
    571         47.642782   0.000000
    572         47.649958   0.000000
    573         47.767101   0.000000
    574         47.776591   0.000000
    575         47.796052   0.000000
    576         47.798686   0.000000
    577         47.807584   0.000000
    578         47.818208   0.000000
    579         47.900599   0.000000
    580         47.901598   0.000000
    581         47.974569   0.000000
    582         47.993855   0.000000
    583         48.073367   0.000000
    584         48.076771   0.000000
    585         48.267207   0.000000
    586         48.267614   0.000000
    587         48.845524   0.000000
    588         48.852829   0.000000
    589         48.872012   0.000000
    590         48.888046   0.000000
    591         48.958289   0.000000
    592         48.962657   0.000000
    593         49.171759   0.000000
    594         49.185617   0.000000
    595         49.196469   0.000000
    596         49.231340   0.000000
    597         49.308593   0.000000
    598         49.486322   0.000000
    599         49.650361   0.000000
    600         49.811266   0.000000
