    3    3    1    1
  0.1098715E+03  0.3561863E-09  0.3561863E-09  0.3000000E-08  0.5000000E-15
  1.000000000000000E-004
  CAR 
 noscf                                   
   26    1  800
 
  0.3333333E+00  0.3333333E+00  0.0000000E+00  0.1000000E+01
   1      -75.778756
   2      -75.778753
   3      -46.045983
   4      -46.042989
   5      -37.191577
   6      -37.175113
   7      -37.141920
   8      -37.135899
   9      -12.411760
  10      -12.298554
  11      -12.115547
  12      -12.104532
  13       -6.940603
  14       -6.647283
  15       -6.630256
  16       -6.373457
  17       -5.934183
  18       -5.801717
  19       -5.281094
  20       -4.966292
  21       -4.924384
  22       -4.740593
  23       -3.748224
  24       -3.668488
  25       -2.030320
  26       -1.541810
  27       -0.810497
  28       -0.758902
  29        0.275538
  30        0.288119
  31        0.801996
  32        1.224451
  33        2.337311
  34        2.454185
  35        2.484808
  36        2.661340
  37        2.985042
  38        3.242915
  39        5.198791
  40        5.268820
  41        6.282344
  42        6.359573
  43        6.459149
  44        6.499583
  45        7.186325
  46        7.203280
  47        7.368529
  48        7.456043
  49        7.485366
  50        7.517639
  51        8.117757
  52        8.126169
  53        8.160054
  54        8.164925
  55        8.191835
  56        8.195348
  57        8.201777
  58        8.212100
  59        8.272577
  60        8.280138
  61        8.500395
  62        8.514157
  63        8.527741
  64        8.528621
  65        8.808975
  66        8.820114
  67        8.829791
  68        8.840986
  69        8.847761
  70        8.857529
  71        8.866709
  72        8.926328
  73        9.356795
  74        9.444913
  75        9.502447
  76        9.522058
  77        9.550363
  78        9.553637
  79        9.557978
  80        9.687773
  81        9.752578
  82        9.815991
  83        9.833767
  84        9.908283
  85       10.071823
  86       10.082995
  87       10.517662
  88       10.525288
  89       10.564003
  90       10.585346
  91       10.647062
  92       10.669694
  93       10.846921
  94       10.854607
  95       10.977860
  96       10.977873
  97       11.574200
  98       11.607867
  99       11.670399
 100       11.714157
 101       12.080579
 102       12.094829
 103       12.144363
 104       12.157933
 105       12.163021
 106       12.242613
 107       12.336434
 108       12.349121
 109       12.751757
 110       12.819031
 111       13.500808
 112       13.503714
 113       13.631912
 114       13.658383
 115       13.674279
 116       13.692814
 117       14.023344
 118       14.030966
 119       14.087138
 120       14.088184
 121       14.978010
 122       14.990660
 123       15.555192
 124       15.599579
 125       15.693229
 126       15.733953
 127       15.754093
 128       15.760675
 129       15.852990
 130       15.880956
 131       16.148923
 132       16.163731
 133       16.461969
 134       16.491999
 135       17.353139
 136       17.367094
 137       17.441157
 138       17.468938
 139       17.482498
 140       17.529831
 141       17.671456
 142       17.787613
 143       18.023148
 144       18.046424
 145       18.079724
 146       18.098126
 147       18.650277
 148       18.680945
 149       18.836536
 150       18.840977
 151       18.958061
 152       18.970310
 153       18.998038
 154       19.057752
 155       20.040537
 156       20.070688
 157       20.364150
 158       20.382322
 159       20.516257
 160       20.531870
 161       20.553188
 162       20.608193
 163       20.614053
 164       20.714290
 165       20.861950
 166       20.983985
 167       21.349328
 168       21.408770
 169       21.503532
 170       21.537709
 171       21.620090
 172       21.657452
 173       21.798889
 174       21.804307
 175       22.363982
 176       22.419461
 177       22.427081
 178       22.570729
 179       23.068502
 180       23.074599
 181       23.102088
 182       23.210935
 183       23.293393
 184       23.298289
 185       23.404737
 186       23.444625
 187       23.463599
 188       23.465852
 189       23.474755
 190       23.488989
 191       23.548721
 192       23.558456
 193       23.601682
 194       23.605478
 195       23.966018
 196       23.966946
 197       23.975679
 198       23.978630
 199       24.014628
 200       24.021152
 201       24.022117
 202       24.026617
 203       24.317311
 204       24.347993
 205       24.370287
 206       24.385355
 207       24.395561
 208       24.402978
 209       24.489837
 210       24.544233
 211       24.550511
 212       24.551515
 213       24.604565
 214       24.608936
 215       24.912748
 216       24.947716
 217       24.965778
 218       24.966906
 219       25.005069
 220       25.027352
 221       25.085382
 222       25.087785
 223       25.258086
 224       25.264063
 225       25.353207
 226       25.428840
 227       25.450487
 228       25.463050
 229       25.546958
 230       25.548578
 231       25.824796
 232       25.826947
 233       26.005813
 234       26.033977
 235       26.046708
 236       26.072631
 237       26.370576
 238       26.373106
 239       26.565874
 240       26.581533
 241       26.585173
 242       26.657344
 243       26.797085
 244       26.832738
 245       26.890929
 246       26.902642
 247       27.061697
 248       27.081488
 249       27.148546
 250       27.194216
 251       27.227467
 252       27.227949
 253       27.340676
 254       27.422231
 255       27.486125
 256       27.488403
 257       27.585353
 258       27.612966
 259       27.911282
 260       28.011375
 261       28.217898
 262       28.252456
 263       28.253138
 264       28.293296
 265       28.537236
 266       28.552652
 267       28.793351
 268       28.834191
 269       28.861219
 270       28.863332
 271       29.030187
 272       29.031014
 273       29.042663
 274       29.062902
 275       29.216076
 276       29.283664
 277       29.314577
 278       29.319402
 279       29.369117
 280       29.421794
 281       29.537699
 282       29.550171
 283       29.550303
 284       29.600660
 285       29.867016
 286       29.943883
 287       29.972820
 288       29.978322
 289       30.159896
 290       30.160070
 291       30.376509
 292       30.388326
 293       30.705621
 294       30.732365
 295       30.946162
 296       30.978616
 297       31.037058
 298       31.051037
 299       31.225477
 300       31.283063
 301       31.391157
 302       31.413486
 303       31.800395
 304       31.801294
 305       31.906178
 306       31.909932
 307       32.393987
 308       32.395523
 309       32.430851
 310       32.444324
 311       32.495358
 312       32.524652
 313       32.526990
 314       32.548719
 315       32.767223
 316       32.897371
 317       33.103177
 318       33.128352
 319       33.227307
 320       33.239399
 321       33.255337
 322       33.277995
 323       33.658739
 324       33.685969
 325       33.889358
 326       33.940568
 327       33.944210
 328       33.958240
 329       34.565567
 330       34.565611
 331       35.039254
 332       35.108971
 333       35.363306
 334       35.368937
 335       35.538006
 336       35.588166
 337       35.705554
 338       35.746503
 339       35.751875
 340       35.857620
 341       35.996303
 342       36.007174
 343       36.046330
 344       36.062516
 345       36.185604
 346       36.187347
 347       36.468400
 348       36.482221
 349       36.587628
 350       36.618257
 351       36.629174
 352       36.636375
 353       36.686319
 354       36.741279
 355       36.757905
 356       36.802877
 357       37.043393
 358       37.100504
 359       37.457843
 360       37.472596
 361       37.526124
 362       37.582817
 363       37.614518
 364       37.625921
 365       38.001115
 366       38.011861
 367       38.124610
 368       38.136497
 369       38.313643
 370       38.327517
 371       38.336567
 372       38.359631
 373       38.391241
 374       38.417570
 375       38.701339
 376       38.720875
 377       38.895874
 378       38.895931
 379       39.004356
 380       39.013144
 381       39.111084
 382       39.118655
 383       39.195008
 384       39.195936
 385       39.199892
 386       39.221273
 387       39.236647
 388       39.255061
 389       39.594053
 390       39.604129
 391       39.630234
 392       39.630289
 393       39.655804
 394       39.655920
 395       39.657354
 396       39.678932
 397       39.695589
 398       39.698324
 399       39.791180
 400       39.791344
 401       39.809433
 402       39.813415
 403       39.814310
 404       39.817843
 405       39.823025
 406       39.827814
 407       39.831148
 408       39.831324
 409       39.831772
 410       39.836033
 411       39.905321
 412       39.909050
 413       39.977984
 414       39.990634
 415       39.990940
 416       40.012584
 417       40.031609
 418       40.039736
 419       40.049105
 420       40.049115
 421       40.113902
 422       40.120882
 423       40.286103
 424       40.288492
 425       40.313606
 426       40.318774
 427       40.328983
 428       40.331044
 429       40.351153
 430       40.356256
 431       40.390840
 432       40.393190
 433       40.560164
 434       40.570493
 435       40.656465
 436       40.667756
 437       40.676472
 438       40.691542
 439       40.806096
 440       40.808149
 441       40.831431
 442       40.849800
 443       40.849893
 444       40.862767
 445       40.873327
 446       40.875180
 447       40.997589
 448       41.011456
 449       41.066382
 450       41.098229
 451       41.112524
 452       41.112690
 453       41.285349
 454       41.286907
 455       41.390267
 456       41.411406
 457       41.456234
 458       41.460624
 459       41.550058
 460       41.558221
 461       41.561367
 462       41.581124
 463       41.796609
 464       41.820784
 465       41.882444
 466       41.887901
 467       41.916434
 468       41.928918
 469       41.951906
 470       41.956541
 471       41.970006
 472       42.016771
 473       42.026555
 474       42.038830
 475       42.093531
 476       42.120607
 477       42.129847
 478       42.148888
 479       42.152810
 480       42.153239
 481       42.387258
 482       42.416135
 483       42.572941
 484       42.591471
 485       42.593096
 486       42.600617
 487       42.772866
 488       42.777395
 489       42.967551
 490       42.967608
 491       43.126607
 492       43.129106
 493       43.171477
 494       43.177324
 495       43.184658
 496       43.196652
 497       43.282861
 498       43.306970
 499       43.320858
 500       43.344447
 501       43.426028
 502       43.435767
 503       43.496856
 504       43.502493
 505       43.574899
 506       43.598331
 507       43.772505
 508       43.786967
 509       43.800889
 510       43.833045
 511       43.874740
 512       43.901588
 513       43.978837
 514       44.012365
 515       44.016999
 516       44.029886
 517       44.206821
 518       44.207337
 519       44.319524
 520       44.330998
 521       44.513112
 522       44.526779
 523       44.835380
 524       44.836456
 525       44.906146
 526       44.907742
 527       44.951452
 528       44.999880
 529       45.097246
 530       45.108394
 531       45.174174
 532       45.221936
 533       45.228309
 534       45.230691
 535       45.546976
 536       45.562278
 537       45.616490
 538       45.667957
 539       45.700411
 540       45.701442
 541       45.776191
 542       45.785916
 543       45.866751
 544       45.880367
 545       45.993606
 546       46.004724
 547       46.260945
 548       46.261478
 549       46.280450
 550       46.289888
 551       46.397681
 552       46.422747
 553       46.445724
 554       46.461664
 555       46.483921
 556       46.487873
 557       46.583632
 558       46.585016
 559       46.668335
 560       46.690837
 561       46.838072
 562       46.857063
 563       47.087644
 564       47.087720
 565       47.145386
 566       47.146809
 567       47.220735
 568       47.276437
 569       47.605111
 570       47.618973
 571       47.667941
 572       47.680552
 573       47.733549
 574       47.743419
 575       47.763649
 576       47.777231
 577       47.853867
 578       47.854367
 579       47.869894
 580       47.872585
 581       47.985885
 582       47.999093
 583       48.040206
 584       48.040371
 585       48.295068
 586       48.300537
 587       48.794828
 588       48.815434
 589       48.957796
 590       48.960126
 591       48.988098
 592       49.033611
 593       49.142708
 594       49.158923
 595       49.162610
 596       49.173341
 597       49.179850
 598       49.188992
 599       49.607721
 600       49.609458
 601       49.667205
 602       49.669111
 603       49.754660
 604       49.757453
 605       49.905218
 606       49.917740
 607       50.078099
 608       50.122368
 609       50.339014
 610       50.366145
 611       50.455020
 612       50.473837
 613       50.619426
 614       50.636465
 615       50.715326
 616       50.727798
 617       50.728305
 618       50.744454
 619       50.758430
 620       50.769787
 621       50.773243
 622       50.785195
 623       51.254779
 624       51.274425
 625       51.377115
 626       51.378979
 627       51.448229
 628       51.450498
 629       51.459159
 630       51.467267
 631       51.504665
 632       51.513035
 633       51.641946
 634       51.642998
 635       51.863024
 636       51.871016
 637       51.988207
 638       51.993948
 639       52.117869
 640       52.137667
 641       52.248869
 642       52.265220
 643       52.266361
 644       52.271572
 645       52.299178
 646       52.313764
 647       52.478009
 648       52.481591
 649       52.831995
 650       52.867777
 651       52.881308
 652       52.891039
 653       53.098394
 654       53.114238
 655       53.261954
 656       53.265410
 657       53.280773
 658       53.281757
 659       53.673718
 660       53.678630
 661       53.683686
 662       53.706902
 663       53.716636
 664       53.720009
 665       53.915432
 666       53.922019
 667       54.033680
 668       54.040552
 669       54.215527
 670       54.215709
 671       54.427508
 672       54.433290
 673       54.639187
 674       54.642865
 675       54.656222
 676       54.680559
 677       54.728631
 678       54.746132
 679       54.771542
 680       54.786794
 681       54.844952
 682       54.847516
 683       54.865372
 684       54.870328
 685       54.891128
 686       54.914214
 687       55.086565
 688       55.096257
 689       55.315247
 690       55.327839
 691       55.596548
 692       55.598788
 693       55.750222
 694       55.754608
 695       55.965776
 696       55.977935
 697       55.983840
 698       55.995913
 699       56.145660
 700       56.186355
 701       56.345447
 702       56.396741
 703       56.421211
 704       56.425142
 705       56.768071
 706       56.774250
 707       56.944984
 708       56.948967
 709       57.004643
 710       57.004953
 711       57.044093
 712       57.083130
 713       57.504009
 714       57.509376
 715       57.606836
 716       57.607307
 717       57.626215
 718       57.630329
 719       57.723011
 720       57.765686
 721       57.772866
 722       57.788788
 723       57.872969
 724       57.875621
 725       58.079176
 726       58.081384
 727       58.153104
 728       58.187191
 729       58.394952
 730       58.398165
 731       58.405670
 732       58.408757
 733       58.461202
 734       58.468187
 735       58.697570
 736       58.697924
 737       58.705805
 738       58.736624
 739       58.754678
 740       58.764179
 741       58.888676
 742       58.903884
 743       58.921673
 744       58.930245
 745       58.967789
 746       58.972836
 747       59.593534
 748       59.605711
 749       59.617816
 750       59.620172
 751       59.627083
 752       59.643229
 753       59.698434
 754       59.699106
 755       59.847356
 756       59.848624
 757       60.102073
 758       60.116203
 759       60.734110
 760       60.743216
 761       60.876974
 762       60.901353
 763       60.906927
 764       60.913558
 765       61.014273
 766       61.023785
 767       61.124106
 768       61.144665
 769       61.329374
 770       61.336613
 771       61.356619
 772       61.381098
 773       61.397540
 774       61.406091
 775       61.473834
 776       61.475121
 777       61.621128
 778       61.638464
 779       61.877171
 780       61.878420
 781       62.307726
 782       62.310028
 783       62.513861
 784       62.534188
 785       62.593952
 786       62.709137
 787       62.960926
 788       62.972451
 789       62.988189
 790       62.996120
 791       63.006109
 792       63.021105
 793       63.072983
 794       63.133988
 795       63.184785
 796       63.260880
 797       63.497632
 798       63.623106
 799       63.694027
 800       63.866227
