    3    3    1    1
  0.9582067E+02  0.3326322E-09  0.3326322E-09  0.3000000E-08  0.5000000E-15
  1.000000000000000E-004
  CAR 
 noscf                                   
     26      1    600
 
  0.3333333E+00  0.3333333E+00  0.0000000E+00  0.1000000E+01
      1        -76.828202   1.000000
      2        -76.828200   1.000000
      3        -46.970015   1.000000
      4        -46.963992   1.000000
      5        -38.363232   1.000000
      6        -38.331873   1.000000
      7        -38.281640   1.000000
      8        -38.270860   1.000000
      9        -15.296992   1.000000
     10        -15.161753   1.000000
     11        -15.116149   1.000000
     12        -15.106402   1.000000
     13         -8.053589   1.000000
     14         -8.002920   1.000000
     15         -8.001274   1.000000
     16         -7.839769   1.000000
     17         -7.102364   1.000000
     18         -6.986390   1.000000
     19         -6.490201   1.000000
     20         -6.429826   1.000000
     21         -6.088591   1.000000
     22         -5.856156   1.000000
     23         -5.127595   1.000000
     24         -5.049036   1.000000
     25         -2.981644   1.000000
     26         -2.514329   1.000000
     27         -1.273979   0.000000
     28         -1.237507   0.000000
     29          0.033703   0.000000
     30          0.049411   0.000000
     31          0.504234   0.000000
     32          0.917784   0.000000
     33          1.930889   0.000000
     34          2.168955   0.000000
     35          2.946426   0.000000
     36          2.995958   0.000000
     37          3.479018   0.000000
     38          3.765788   0.000000
     39          5.827693   0.000000
     40          5.881633   0.000000
     41          6.617475   0.000000
     42          6.718323   0.000000
     43          7.156391   0.000000
     44          7.185524   0.000000
     45          7.651758   0.000000
     46          7.672011   0.000000
     47          7.690108   0.000000
     48          7.725900   0.000000
     49          7.756118   0.000000
     50          7.802466   0.000000
     51          8.281707   0.000000
     52          8.290443   0.000000
     53          8.332167   0.000000
     54          8.339295   0.000000
     55          8.402598   0.000000
     56          8.403142   0.000000
     57          8.406740   0.000000
     58          8.412170   0.000000
     59          8.595869   0.000000
     60          8.604677   0.000000
     61          8.658259   0.000000
     62          8.658868   0.000000
     63          8.695434   0.000000
     64          8.731610   0.000000
     65          8.873992   0.000000
     66          8.949227   0.000000
     67          8.988794   0.000000
     68          9.018416   0.000000
     69          9.058785   0.000000
     70          9.077118   0.000000
     71          9.089748   0.000000
     72          9.098197   0.000000
     73          9.460257   0.000000
     74          9.476035   0.000000
     75          9.562233   0.000000
     76          9.610273   0.000000
     77          9.708219   0.000000
     78          9.709276   0.000000
     79          9.855601   0.000000
     80          9.899138   0.000000
     81          9.935565   0.000000
     82          9.938488   0.000000
     83         10.007060   0.000000
     84         10.079637   0.000000
     85         10.314445   0.000000
     86         10.324289   0.000000
     87         10.754128   0.000000
     88         10.755948   0.000000
     89         10.923661   0.000000
     90         10.950199   0.000000
     91         11.039883   0.000000
     92         11.049560   0.000000
     93         11.053508   0.000000
     94         11.108356   0.000000
     95         11.184691   0.000000
     96         11.185545   0.000000
     97         11.932764   0.000000
     98         11.935238   0.000000
     99         12.202088   0.000000
    100         12.238144   0.000000
    101         12.433693   0.000000
    102         12.445398   0.000000
    103         12.576392   0.000000
    104         12.576554   0.000000
    105         12.714691   0.000000
    106         12.728455   0.000000
    107         12.960569   0.000000
    108         12.961164   0.000000
    109         13.795229   0.000000
    110         13.895333   0.000000
    111         13.933868   0.000000
    112         13.953130   0.000000
    113         13.973409   0.000000
    114         14.031171   0.000000
    115         14.461452   0.000000
    116         14.477116   0.000000
    117         14.504172   0.000000
    118         14.511827   0.000000
    119         14.600189   0.000000
    120         14.611527   0.000000
    121         14.927710   0.000000
    122         14.957152   0.000000
    123         16.071002   0.000000
    124         16.076634   0.000000
    125         16.135803   0.000000
    126         16.153300   0.000000
    127         16.249713   0.000000
    128         16.257986   0.000000
    129         16.674949   0.000000
    130         16.688558   0.000000
    131         16.866032   0.000000
    132         16.879989   0.000000
    133         17.546589   0.000000
    134         17.566204   0.000000
    135         18.447574   0.000000
    136         18.477923   0.000000
    137         18.516683   0.000000
    138         18.526983   0.000000
    139         18.625881   0.000000
    140         18.640138   0.000000
    141         18.860027   0.000000
    142         18.871740   0.000000
    143         19.503970   0.000000
    144         19.520269   0.000000
    145         19.758433   0.000000
    146         19.770429   0.000000
    147         20.401625   0.000000
    148         20.454076   0.000000
    149         20.506517   0.000000
    150         20.516256   0.000000
    151         20.672926   0.000000
    152         20.681723   0.000000
    153         21.309150   0.000000
    154         21.314597   0.000000
    155         21.511577   0.000000
    156         21.604884   0.000000
    157         21.608356   0.000000
    158         21.628343   0.000000
    159         21.917521   0.000000
    160         21.953946   0.000000
    161         22.285255   0.000000
    162         22.311443   0.000000
    163         22.604884   0.000000
    164         22.619840   0.000000
    165         22.970711   0.000000
    166         22.973511   0.000000
    167         23.383784   0.000000
    168         23.403225   0.000000
    169         23.665719   0.000000
    170         23.680802   0.000000
    171         23.907012   0.000000
    172         23.908793   0.000000
    173         24.082181   0.000000
    174         24.082548   0.000000
    175         24.126957   0.000000
    176         24.136566   0.000000
    177         24.300980   0.000000
    178         24.303827   0.000000
    179         25.128458   0.000000
    180         25.140319   0.000000
    181         25.164104   0.000000
    182         25.168110   0.000000
    183         25.175417   0.000000
    184         25.202110   0.000000
    185         25.215643   0.000000
    186         25.235243   0.000000
    187         25.748370   0.000000
    188         25.762756   0.000000
    189         25.897857   0.000000
    190         25.906468   0.000000
    191         26.182676   0.000000
    192         26.189677   0.000000
    193         26.268017   0.000000
    194         26.273649   0.000000
    195         26.303936   0.000000
    196         26.321475   0.000000
    197         26.405174   0.000000
    198         26.405441   0.000000
    199         26.470109   0.000000
    200         26.471885   0.000000
    201         26.476660   0.000000
    202         26.477405   0.000000
    203         26.546372   0.000000
    204         26.548179   0.000000
    205         26.554174   0.000000
    206         26.556217   0.000000
    207         26.728064   0.000000
    208         26.730674   0.000000
    209         26.897154   0.000000
    210         26.899580   0.000000
    211         27.032209   0.000000
    212         27.033006   0.000000
    213         27.095755   0.000000
    214         27.098149   0.000000
    215         27.200474   0.000000
    216         27.202224   0.000000
    217         27.297518   0.000000
    218         27.298723   0.000000
    219         27.544549   0.000000
    220         27.551083   0.000000
    221         27.631318   0.000000
    222         27.632561   0.000000
    223         28.003395   0.000000
    224         28.007106   0.000000
    225         28.090188   0.000000
    226         28.093006   0.000000
    227         28.181555   0.000000
    228         28.184820   0.000000
    229         28.220666   0.000000
    230         28.227308   0.000000
    231         28.367006   0.000000
    232         28.367716   0.000000
    233         28.390371   0.000000
    234         28.390910   0.000000
    235         28.637553   0.000000
    236         28.666289   0.000000
    237         28.757797   0.000000
    238         28.784845   0.000000
    239         29.070134   0.000000
    240         29.083912   0.000000
    241         29.394825   0.000000
    242         29.394961   0.000000
    243         29.400096   0.000000
    244         29.404444   0.000000
    245         29.435718   0.000000
    246         29.438731   0.000000
    247         29.529513   0.000000
    248         29.533880   0.000000
    249         29.736335   0.000000
    250         29.738699   0.000000
    251         29.850207   0.000000
    252         29.892440   0.000000
    253         29.898590   0.000000
    254         29.922466   0.000000
    255         30.363753   0.000000
    256         30.379363   0.000000
    257         30.435472   0.000000
    258         30.440334   0.000000
    259         30.460104   0.000000
    260         30.526188   0.000000
    261         30.788925   0.000000
    262         30.802801   0.000000
    263         31.201675   0.000000
    264         31.210791   0.000000
    265         31.425612   0.000000
    266         31.430757   0.000000
    267         31.439577   0.000000
    268         31.449798   0.000000
    269         31.478259   0.000000
    270         31.491785   0.000000
    271         31.885441   0.000000
    272         31.886245   0.000000
    273         31.964921   0.000000
    274         31.966654   0.000000
    275         32.029045   0.000000
    276         32.033930   0.000000
    277         32.274686   0.000000
    278         32.285836   0.000000
    279         32.287255   0.000000
    280         32.293054   0.000000
    281         32.452381   0.000000
    282         32.499412   0.000000
    283         32.728495   0.000000
    284         32.762755   0.000000
    285         32.968432   0.000000
    286         32.982590   0.000000
    287         33.179015   0.000000
    288         33.179156   0.000000
    289         33.466859   0.000000
    290         33.507659   0.000000
    291         33.635482   0.000000
    292         33.636082   0.000000
    293         33.675286   0.000000
    294         33.688278   0.000000
    295         33.739113   0.000000
    296         33.746530   0.000000
    297         34.346971   0.000000
    298         34.354069   0.000000
    299         34.435482   0.000000
    300         34.436127   0.000000
    301         34.524092   0.000000
    302         34.549994   0.000000
    303         34.869691   0.000000
    304         34.887266   0.000000
    305         34.921632   0.000000
    306         34.928081   0.000000
    307         35.530602   0.000000
    308         35.542372   0.000000
    309         35.799689   0.000000
    310         35.805462   0.000000
    311         35.810823   0.000000
    312         35.835616   0.000000
    313         35.843711   0.000000
    314         35.844612   0.000000
    315         36.372557   0.000000
    316         36.384269   0.000000
    317         36.546650   0.000000
    318         36.551949   0.000000
    319         36.714651   0.000000
    320         36.716766   0.000000
    321         36.718623   0.000000
    322         36.752748   0.000000
    323         36.785868   0.000000
    324         36.803358   0.000000
    325         36.867264   0.000000
    326         36.875026   0.000000
    327         37.038473   0.000000
    328         37.050202   0.000000
    329         37.446843   0.000000
    330         37.447629   0.000000
    331         37.545786   0.000000
    332         37.551435   0.000000
    333         37.898369   0.000000
    334         37.930534   0.000000
    335         37.945654   0.000000
    336         37.952704   0.000000
    337         38.278741   0.000000
    338         38.282382   0.000000
    339         38.606547   0.000000
    340         38.610787   0.000000
    341         39.067200   0.000000
    342         39.099742   0.000000
    343         39.197589   0.000000
    344         39.198920   0.000000
    345         39.199649   0.000000
    346         39.338773   0.000000
    347         39.341534   0.000000
    348         39.342732   0.000000
    349         39.805239   0.000000
    350         39.811723   0.000000
    351         40.158404   0.000000
    352         40.159335   0.000000
    353         40.379794   0.000000
    354         40.380578   0.000000
    355         40.921730   0.000000
    356         40.943154   0.000000
    357         41.077106   0.000000
    358         41.078912   0.000000
    359         41.155743   0.000000
    360         41.164493   0.000000
    361         41.200930   0.000000
    362         41.203069   0.000000
    363         41.821734   0.000000
    364         41.832867   0.000000
    365         41.895478   0.000000
    366         41.956905   0.000000
    367         42.056574   0.000000
    368         42.061584   0.000000
    369         42.322508   0.000000
    370         42.327154   0.000000
    371         42.338565   0.000000
    372         42.340553   0.000000
    373         42.545010   0.000000
    374         42.555892   0.000000
    375         42.826444   0.000000
    376         42.831590   0.000000
    377         42.846982   0.000000
    378         42.855336   0.000000
    379         43.091818   0.000000
    380         43.139840   0.000000
    381         43.244345   0.000000
    382         43.255901   0.000000
    383         43.335502   0.000000
    384         43.346974   0.000000
    385         43.362614   0.000000
    386         43.365184   0.000000
    387         43.676015   0.000000
    388         43.685038   0.000000
    389         43.967709   0.000000
    390         43.969250   0.000000
    391         43.970274   0.000000
    392         43.988750   0.000000
    393         44.147560   0.000000
    394         44.160047   0.000000
    395         44.230479   0.000000
    396         44.234555   0.000000
    397         44.264258   0.000000
    398         44.268482   0.000000
    399         44.331001   0.000000
    400         44.332317   0.000000
    401         44.420471   0.000000
    402         44.420918   0.000000
    403         44.515837   0.000000
    404         44.517019   0.000000
    405         44.535449   0.000000
    406         44.546036   0.000000
    407         44.549727   0.000000
    408         44.554267   0.000000
    409         44.611765   0.000000
    410         44.615474   0.000000
    411         44.617220   0.000000
    412         44.617387   0.000000
    413         44.664318   0.000000
    414         44.664568   0.000000
    415         44.724392   0.000000
    416         44.724921   0.000000
    417         44.772440   0.000000
    418         44.772501   0.000000
    419         44.834297   0.000000
    420         44.838336   0.000000
    421         44.848179   0.000000
    422         44.848419   0.000000
    423         44.930666   0.000000
    424         44.946653   0.000000
    425         44.965441   0.000000
    426         44.967023   0.000000
    427         44.967327   0.000000
    428         44.969551   0.000000
    429         45.010638   0.000000
    430         45.012135   0.000000
    431         45.016859   0.000000
    432         45.017157   0.000000
    433         45.210791   0.000000
    434         45.212454   0.000000
    435         45.258956   0.000000
    436         45.274137   0.000000
    437         45.409233   0.000000
    438         45.418144   0.000000
    439         45.426465   0.000000
    440         45.434387   0.000000
    441         45.453628   0.000000
    442         45.457239   0.000000
    443         45.598023   0.000000
    444         45.603717   0.000000
    445         45.693259   0.000000
    446         45.708442   0.000000
    447         45.710263   0.000000
    448         45.727278   0.000000
    449         45.728136   0.000000
    450         45.735742   0.000000
    451         45.970995   0.000000
    452         45.982150   0.000000
    453         45.996514   0.000000
    454         45.997299   0.000000
    455         46.026927   0.000000
    456         46.028027   0.000000
    457         46.057464   0.000000
    458         46.057494   0.000000
    459         46.168727   0.000000
    460         46.171001   0.000000
    461         46.204725   0.000000
    462         46.206419   0.000000
    463         46.248396   0.000000
    464         46.262240   0.000000
    465         46.271858   0.000000
    466         46.275606   0.000000
    467         46.312364   0.000000
    468         46.313911   0.000000
    469         46.457156   0.000000
    470         46.460234   0.000000
    471         46.607989   0.000000
    472         46.611096   0.000000
    473         46.658609   0.000000
    474         46.668266   0.000000
    475         46.670827   0.000000
    476         46.697112   0.000000
    477         46.770249   0.000000
    478         46.771076   0.000000
    479         46.930271   0.000000
    480         46.930855   0.000000
    481         46.936130   0.000000
    482         46.941310   0.000000
    483         47.097939   0.000000
    484         47.104128   0.000000
    485         47.137815   0.000000
    486         47.138728   0.000000
    487         47.394158   0.000000
    488         47.394906   0.000000
    489         47.451326   0.000000
    490         47.453707   0.000000
    491         47.500300   0.000000
    492         47.547694   0.000000
    493         47.628056   0.000000
    494         47.631968   0.000000
    495         47.642040   0.000000
    496         47.645706   0.000000
    497         47.663199   0.000000
    498         47.666663   0.000000
    499         47.722453   0.000000
    500         47.755214   0.000000
    501         47.959640   0.000000
    502         47.959749   0.000000
    503         47.998600   0.000000
    504         47.999647   0.000000
    505         48.054422   0.000000
    506         48.057607   0.000000
    507         48.349972   0.000000
    508         48.366291   0.000000
    509         48.479939   0.000000
    510         48.491642   0.000000
    511         48.567425   0.000000
    512         48.575437   0.000000
    513         48.782956   0.000000
    514         48.784417   0.000000
    515         48.903243   0.000000
    516         48.910812   0.000000
    517         48.916603   0.000000
    518         48.918287   0.000000
    519         48.973222   0.000000
    520         48.986782   0.000000
    521         49.077147   0.000000
    522         49.112310   0.000000
    523         49.448006   0.000000
    524         49.453154   0.000000
    525         49.463425   0.000000
    526         49.466850   0.000000
    527         49.576373   0.000000
    528         49.578341   0.000000
    529         49.624962   0.000000
    530         49.625162   0.000000
    531         49.638038   0.000000
    532         49.675931   0.000000
    533         49.993430   0.000000
    534         49.998631   0.000000
    535         50.141764   0.000000
    536         50.142608   0.000000
    537         50.177790   0.000000
    538         50.179425   0.000000
    539         50.211701   0.000000
    540         50.216113   0.000000
    541         50.467602   0.000000
    542         50.472364   0.000000
    543         50.589157   0.000000
    544         50.591035   0.000000
    545         50.616427   0.000000
    546         50.637067   0.000000
    547         50.650312   0.000000
    548         50.652053   0.000000
    549         50.978560   0.000000
    550         50.983704   0.000000
    551         51.114605   0.000000
    552         51.116377   0.000000
    553         51.218261   0.000000
    554         51.219023   0.000000
    555         51.228954   0.000000
    556         51.229779   0.000000
    557         51.273903   0.000000
    558         51.285452   0.000000
    559         51.615895   0.000000
    560         51.636119   0.000000
    561         51.646790   0.000000
    562         51.650006   0.000000
    563         51.820963   0.000000
    564         51.827960   0.000000
    565         51.846400   0.000000
    566         51.848030   0.000000
    567         51.859967   0.000000
    568         51.863772   0.000000
    569         51.900965   0.000000
    570         51.926122   0.000000
    571         52.165814   0.000000
    572         52.166601   0.000000
    573         52.200097   0.000000
    574         52.203467   0.000000
    575         52.271047   0.000000
    576         52.283180   0.000000
    577         52.843130   0.000000
    578         52.846008   0.000000
    579         52.902170   0.000000
    580         52.908314   0.000000
    581         52.974968   0.000000
    582         52.977643   0.000000
    583         53.367696   0.000000
    584         53.370551   0.000000
    585         53.518631   0.000000
    586         53.527167   0.000000
    587         53.536170   0.000000
    588         53.540161   0.000000
    589         53.560003   0.000000
    590         53.597174   0.000000
    591         53.661787   0.000000
    592         53.692182   0.000000
    593         53.713770   0.000000
    594         53.949161   0.000000
    595         54.117239   0.000000
    596         54.162147   0.000000
    597         54.251072   0.000000
    598         54.312271   0.000000
    599         54.381885   0.000000
    600         54.404277   0.000000
