    3    3    1    1
  0.9610082E+02  0.3331181E-09  0.3331181E-09  0.3000000E-08  0.5000000E-15
  1.000000000000000E-004
  CAR 
 Bi2Se3                                  
     26      1    800
 
  0.3333333E+00  0.3333333E+00  0.0000000E+00  0.1000000E+01
      1        -63.764925   1.000000
      2        -63.764912   1.000000
      3        -39.539637   1.000000
      4        -39.525278   1.000000
      5        -37.158320   1.000000
      6        -37.127825   1.000000
      7        -37.103343   1.000000
      8        -37.093097   1.000000
      9        -15.121279   1.000000
     10        -15.078869   1.000000
     11        -14.993486   1.000000
     12        -14.991040   1.000000
     13         -7.908312   1.000000
     14         -7.787757   1.000000
     15         -7.447872   1.000000
     16         -7.287270   1.000000
     17         -6.863959   1.000000
     18         -6.779751   1.000000
     19         -6.313986   1.000000
     20         -6.275997   1.000000
     21         -5.906409   1.000000
     22         -5.712415   1.000000
     23         -5.035826   1.000000
     24         -5.008912   1.000000
     25         -3.018235   1.000000
     26         -2.834061   1.000000
     27         -1.513475   0.000000
     28         -1.493225   0.000000
     29         -0.374232   0.000000
     30         -0.360657   0.000000
     31         -0.007580   0.000000
     32          0.136999   0.000000
     33          1.286029   0.000000
     34          1.360968   0.000000
     35          3.517481   0.000000
     36          3.611004   0.000000
     37          3.823194   0.000000
     38          3.845320   0.000000
     39          5.939781   0.000000
     40          5.963849   0.000000
     41          6.633419   0.000000
     42          6.670746   0.000000
     43          6.999851   0.000000
     44          7.007717   0.000000
     45          7.615377   0.000000
     46          7.653917   0.000000
     47          7.724605   0.000000
     48          7.733596   0.000000
     49          8.022809   0.000000
     50          8.056370   0.000000
     51          8.390523   0.000000
     52          8.399380   0.000000
     53          8.454727   0.000000
     54          8.464459   0.000000
     55          8.489650   0.000000
     56          8.493078   0.000000
     57          8.506667   0.000000
     58          8.513354   0.000000
     59          8.590340   0.000000
     60          8.594208   0.000000
     61          8.743364   0.000000
     62          8.751341   0.000000
     63          8.802032   0.000000
     64          8.810736   0.000000
     65          8.928207   0.000000
     66          9.006097   0.000000
     67          9.056125   0.000000
     68          9.080702   0.000000
     69          9.185504   0.000000
     70          9.189441   0.000000
     71          9.195652   0.000000
     72          9.226629   0.000000
     73          9.465481   0.000000
     74          9.495845   0.000000
     75          9.660673   0.000000
     76          9.676021   0.000000
     77          9.809444   0.000000
     78          9.815290   0.000000
     79          9.956126   0.000000
     80          9.964302   0.000000
     81         10.008848   0.000000
     82         10.041244   0.000000
     83         10.044039   0.000000
     84         10.097211   0.000000
     85         10.438158   0.000000
     86         10.443990   0.000000
     87         10.708820   0.000000
     88         10.721521   0.000000
     89         11.025310   0.000000
     90         11.036951   0.000000
     91         11.038692   0.000000
     92         11.049467   0.000000
     93         11.052839   0.000000
     94         11.059551   0.000000
     95         11.263479   0.000000
     96         11.266323   0.000000
     97         12.040941   0.000000
     98         12.042447   0.000000
     99         12.268177   0.000000
    100         12.282737   0.000000
    101         12.385983   0.000000
    102         12.393392   0.000000
    103         12.545568   0.000000
    104         12.553301   0.000000
    105         12.798110   0.000000
    106         12.804804   0.000000
    107         13.046905   0.000000
    108         13.050620   0.000000
    109         13.843894   0.000000
    110         13.941966   0.000000
    111         13.983070   0.000000
    112         13.991991   0.000000
    113         14.031481   0.000000
    114         14.033362   0.000000
    115         14.428568   0.000000
    116         14.432715   0.000000
    117         14.469252   0.000000
    118         14.472678   0.000000
    119         14.600128   0.000000
    120         14.606308   0.000000
    121         15.028510   0.000000
    122         15.045453   0.000000
    123         16.106018   0.000000
    124         16.109184   0.000000
    125         16.112535   0.000000
    126         16.117097   0.000000
    127         16.345806   0.000000
    128         16.350548   0.000000
    129         16.666853   0.000000
    130         16.680771   0.000000
    131         16.811445   0.000000
    132         16.813976   0.000000
    133         17.629879   0.000000
    134         17.641233   0.000000
    135         18.428294   0.000000
    136         18.445498   0.000000
    137         18.538171   0.000000
    138         18.544390   0.000000
    139         18.859149   0.000000
    140         18.870673   0.000000
    141         18.943879   0.000000
    142         18.952286   0.000000
    143         19.486410   0.000000
    144         19.488399   0.000000
    145         20.222994   0.000000
    146         20.229770   0.000000
    147         20.447506   0.000000
    148         20.463740   0.000000
    149         20.471010   0.000000
    150         20.499728   0.000000
    151         20.539884   0.000000
    152         20.541084   0.000000
    153         21.361119   0.000000
    154         21.365820   0.000000
    155         21.516079   0.000000
    156         21.559536   0.000000
    157         21.668089   0.000000
    158         21.670779   0.000000
    159         22.001633   0.000000
    160         22.041590   0.000000
    161         22.234388   0.000000
    162         22.257679   0.000000
    163         22.557058   0.000000
    164         22.558533   0.000000
    165         22.985363   0.000000
    166         22.999746   0.000000
    167         23.321950   0.000000
    168         23.362934   0.000000
    169         23.507708   0.000000
    170         23.515937   0.000000
    171         23.758084   0.000000
    172         23.770898   0.000000
    173         23.940182   0.000000
    174         23.949487   0.000000
    175         24.028468   0.000000
    176         24.072173   0.000000
    177         24.374628   0.000000
    178         24.378042   0.000000
    179         25.048608   0.000000
    180         25.110220   0.000000
    181         25.166315   0.000000
    182         25.174827   0.000000
    183         25.193297   0.000000
    184         25.198945   0.000000
    185         25.244525   0.000000
    186         25.279002   0.000000
    187         25.787632   0.000000
    188         25.795222   0.000000
    189         25.912655   0.000000
    190         25.914940   0.000000
    191         26.137798   0.000000
    192         26.146388   0.000000
    193         26.272887   0.000000
    194         26.278202   0.000000
    195         26.289939   0.000000
    196         26.291839   0.000000
    197         26.428881   0.000000
    198         26.433163   0.000000
    199         26.442670   0.000000
    200         26.446700   0.000000
    201         26.473999   0.000000
    202         26.476480   0.000000
    203         26.567736   0.000000
    204         26.576521   0.000000
    205         26.618290   0.000000
    206         26.622665   0.000000
    207         26.747010   0.000000
    208         26.751254   0.000000
    209         26.900085   0.000000
    210         26.909736   0.000000
    211         27.030372   0.000000
    212         27.037580   0.000000
    213         27.117644   0.000000
    214         27.124050   0.000000
    215         27.195556   0.000000
    216         27.207897   0.000000
    217         27.340857   0.000000
    218         27.345145   0.000000
    219         27.553795   0.000000
    220         27.560304   0.000000
    221         27.687718   0.000000
    222         27.692405   0.000000
    223         28.018887   0.000000
    224         28.027702   0.000000
    225         28.085429   0.000000
    226         28.087260   0.000000
    227         28.185569   0.000000
    228         28.197383   0.000000
    229         28.261680   0.000000
    230         28.264212   0.000000
    231         28.386530   0.000000
    232         28.391565   0.000000
    233         28.462040   0.000000
    234         28.466797   0.000000
    235         28.602101   0.000000
    236         28.628558   0.000000
    237         28.629909   0.000000
    238         28.656992   0.000000
    239         29.078630   0.000000
    240         29.089670   0.000000
    241         29.374184   0.000000
    242         29.376914   0.000000
    243         29.398091   0.000000
    244         29.400637   0.000000
    245         29.436801   0.000000
    246         29.443180   0.000000
    247         29.545353   0.000000
    248         29.548670   0.000000
    249         29.623121   0.000000
    250         29.626383   0.000000
    251         29.865669   0.000000
    252         29.874733   0.000000
    253         29.908767   0.000000
    254         29.913376   0.000000
    255         30.286517   0.000000
    256         30.292293   0.000000
    257         30.293678   0.000000
    258         30.316278   0.000000
    259         30.495249   0.000000
    260         30.498328   0.000000
    261         30.780333   0.000000
    262         30.784244   0.000000
    263         31.147887   0.000000
    264         31.152122   0.000000
    265         31.390915   0.000000
    266         31.398436   0.000000
    267         31.426656   0.000000
    268         31.433737   0.000000
    269         31.450758   0.000000
    270         31.456621   0.000000
    271         31.900948   0.000000
    272         31.904399   0.000000
    273         31.935807   0.000000
    274         31.938343   0.000000
    275         32.010104   0.000000
    276         32.016307   0.000000
    277         32.205175   0.000000
    278         32.221314   0.000000
    279         32.233580   0.000000
    280         32.234098   0.000000
    281         32.339596   0.000000
    282         32.347321   0.000000
    283         32.540668   0.000000
    284         32.550568   0.000000
    285         33.064031   0.000000
    286         33.074988   0.000000
    287         33.151868   0.000000
    288         33.157755   0.000000
    289         33.504324   0.000000
    290         33.511836   0.000000
    291         33.682072   0.000000
    292         33.687425   0.000000
    293         33.701087   0.000000
    294         33.704894   0.000000
    295         33.721960   0.000000
    296         33.734187   0.000000
    297         34.240518   0.000000
    298         34.260086   0.000000
    299         34.414256   0.000000
    300         34.419941   0.000000
    301         34.595759   0.000000
    302         34.620193   0.000000
    303         34.784538   0.000000
    304         34.792098   0.000000
    305         34.858487   0.000000
    306         34.866703   0.000000
    307         35.307489   0.000000
    308         35.317434   0.000000
    309         35.600265   0.000000
    310         35.605939   0.000000
    311         35.675407   0.000000
    312         35.678569   0.000000
    313         35.813249   0.000000
    314         35.828815   0.000000
    315         36.323414   0.000000
    316         36.341287   0.000000
    317         36.423267   0.000000
    318         36.424251   0.000000
    319         36.666547   0.000000
    320         36.675886   0.000000
    321         36.702988   0.000000
    322         36.704124   0.000000
    323         36.751747   0.000000
    324         36.756590   0.000000
    325         36.879590   0.000000
    326         36.881661   0.000000
    327         37.015370   0.000000
    328         37.020182   0.000000
    329         37.415277   0.000000
    330         37.418337   0.000000
    331         37.527354   0.000000
    332         37.531631   0.000000
    333         37.624876   0.000000
    334         37.637472   0.000000
    335         37.781423   0.000000
    336         37.799514   0.000000
    337         38.315374   0.000000
    338         38.323160   0.000000
    339         38.358911   0.000000
    340         38.365450   0.000000
    341         38.575216   0.000000
    342         38.576859   0.000000
    343         39.061037   0.000000
    344         39.074642   0.000000
    345         39.175091   0.000000
    346         39.178994   0.000000
    347         39.286632   0.000000
    348         39.293076   0.000000
    349         39.777364   0.000000
    350         39.781653   0.000000
    351         40.113739   0.000000
    352         40.117956   0.000000
    353         40.382944   0.000000
    354         40.386134   0.000000
    355         40.634135   0.000000
    356         40.656295   0.000000
    357         41.134265   0.000000
    358         41.134907   0.000000
    359         41.155113   0.000000
    360         41.157930   0.000000
    361         41.187106   0.000000
    362         41.195712   0.000000
    363         41.474246   0.000000
    364         41.492377   0.000000
    365         41.718812   0.000000
    366         41.783432   0.000000
    367         41.958637   0.000000
    368         41.959195   0.000000
    369         42.321433   0.000000
    370         42.325648   0.000000
    371         42.378811   0.000000
    372         42.387096   0.000000
    373         42.439928   0.000000
    374         42.443727   0.000000
    375         42.815053   0.000000
    376         42.828271   0.000000
    377         42.853263   0.000000
    378         42.856252   0.000000
    379         43.038854   0.000000
    380         43.064922   0.000000
    381         43.225498   0.000000
    382         43.241811   0.000000
    383         43.245337   0.000000
    384         43.254985   0.000000
    385         43.292513   0.000000
    386         43.303873   0.000000
    387         43.604602   0.000000
    388         43.613516   0.000000
    389         43.809693   0.000000
    390         43.814526   0.000000
    391         43.856721   0.000000
    392         43.859610   0.000000
    393         44.068033   0.000000
    394         44.076451   0.000000
    395         44.084502   0.000000
    396         44.087346   0.000000
    397         44.116218   0.000000
    398         44.123432   0.000000
    399         44.133305   0.000000
    400         44.134914   0.000000
    401         44.367393   0.000000
    402         44.370735   0.000000
    403         44.453766   0.000000
    404         44.457086   0.000000
    405         44.513016   0.000000
    406         44.519787   0.000000
    407         44.521646   0.000000
    408         44.533082   0.000000
    409         44.588911   0.000000
    410         44.594981   0.000000
    411         44.596157   0.000000
    412         44.601419   0.000000
    413         44.643428   0.000000
    414         44.650939   0.000000
    415         44.681352   0.000000
    416         44.687883   0.000000
    417         44.724265   0.000000
    418         44.730583   0.000000
    419         44.782596   0.000000
    420         44.789771   0.000000
    421         44.801072   0.000000
    422         44.803419   0.000000
    423         44.841362   0.000000
    424         44.847764   0.000000
    425         44.893587   0.000000
    426         44.912255   0.000000
    427         44.919321   0.000000
    428         44.926170   0.000000
    429         44.940113   0.000000
    430         44.947481   0.000000
    431         44.989113   0.000000
    432         44.997226   0.000000
    433         45.172336   0.000000
    434         45.175223   0.000000
    435         45.183509   0.000000
    436         45.189053   0.000000
    437         45.352799   0.000000
    438         45.360531   0.000000
    439         45.364580   0.000000
    440         45.370549   0.000000
    441         45.389668   0.000000
    442         45.394787   0.000000
    443         45.533580   0.000000
    444         45.539741   0.000000
    445         45.612925   0.000000
    446         45.619033   0.000000
    447         45.656286   0.000000
    448         45.670234   0.000000
    449         45.678069   0.000000
    450         45.680312   0.000000
    451         45.937872   0.000000
    452         45.943717   0.000000
    453         45.948693   0.000000
    454         45.956848   0.000000
    455         45.979902   0.000000
    456         45.984237   0.000000
    457         46.042903   0.000000
    458         46.048580   0.000000
    459         46.177629   0.000000
    460         46.185251   0.000000
    461         46.185340   0.000000
    462         46.188456   0.000000
    463         46.235302   0.000000
    464         46.241787   0.000000
    465         46.243928   0.000000
    466         46.244238   0.000000
    467         46.262418   0.000000
    468         46.265849   0.000000
    469         46.384558   0.000000
    470         46.385737   0.000000
    471         46.528662   0.000000
    472         46.541114   0.000000
    473         46.553417   0.000000
    474         46.558937   0.000000
    475         46.616522   0.000000
    476         46.621380   0.000000
    477         46.724943   0.000000
    478         46.733002   0.000000
    479         46.867379   0.000000
    480         46.874050   0.000000
    481         46.955221   0.000000
    482         46.957465   0.000000
    483         47.069863   0.000000
    484         47.073597   0.000000
    485         47.121282   0.000000
    486         47.125735   0.000000
    487         47.342383   0.000000
    488         47.346066   0.000000
    489         47.402162   0.000000
    490         47.405600   0.000000
    491         47.433583   0.000000
    492         47.460408   0.000000
    493         47.558966   0.000000
    494         47.560011   0.000000
    495         47.581368   0.000000
    496         47.587207   0.000000
    497         47.652239   0.000000
    498         47.663343   0.000000
    499         47.671941   0.000000
    500         47.674803   0.000000
    501         47.932552   0.000000
    502         47.935436   0.000000
    503         48.029043   0.000000
    504         48.030728   0.000000
    505         48.034046   0.000000
    506         48.036458   0.000000
    507         48.225299   0.000000
    508         48.237068   0.000000
    509         48.348952   0.000000
    510         48.351110   0.000000
    511         48.379167   0.000000
    512         48.383612   0.000000
    513         48.721370   0.000000
    514         48.725706   0.000000
    515         48.791637   0.000000
    516         48.797619   0.000000
    517         48.889986   0.000000
    518         48.897899   0.000000
    519         48.904800   0.000000
    520         48.908541   0.000000
    521         48.987859   0.000000
    522         49.009897   0.000000
    523         49.337257   0.000000
    524         49.338434   0.000000
    525         49.413097   0.000000
    526         49.414847   0.000000
    527         49.550783   0.000000
    528         49.565175   0.000000
    529         49.566561   0.000000
    530         49.571117   0.000000
    531         49.614649   0.000000
    532         49.616597   0.000000
    533         49.862967   0.000000
    534         49.865735   0.000000
    535         50.047234   0.000000
    536         50.053474   0.000000
    537         50.102742   0.000000
    538         50.103612   0.000000
    539         50.160317   0.000000
    540         50.162268   0.000000
    541         50.399106   0.000000
    542         50.404425   0.000000
    543         50.523182   0.000000
    544         50.530667   0.000000
    545         50.540094   0.000000
    546         50.545110   0.000000
    547         50.557541   0.000000
    548         50.562409   0.000000
    549         50.897495   0.000000
    550         50.903994   0.000000
    551         51.074916   0.000000
    552         51.080454   0.000000
    553         51.146412   0.000000
    554         51.161023   0.000000
    555         51.205997   0.000000
    556         51.210810   0.000000
    557         51.211072   0.000000
    558         51.215783   0.000000
    559         51.606976   0.000000
    560         51.612113   0.000000
    561         51.621592   0.000000
    562         51.631000   0.000000
    563         51.747425   0.000000
    564         51.749438   0.000000
    565         51.781099   0.000000
    566         51.783645   0.000000
    567         51.801430   0.000000
    568         51.810814   0.000000
    569         51.883577   0.000000
    570         51.885230   0.000000
    571         52.148693   0.000000
    572         52.152893   0.000000
    573         52.153285   0.000000
    574         52.154695   0.000000
    575         52.191030   0.000000
    576         52.191940   0.000000
    577         52.829868   0.000000
    578         52.834103   0.000000
    579         52.887373   0.000000
    580         52.888209   0.000000
    581         52.937614   0.000000
    582         52.940391   0.000000
    583         53.348070   0.000000
    584         53.349199   0.000000
    585         53.353860   0.000000
    586         53.357103   0.000000
    587         53.419437   0.000000
    588         53.446192   0.000000
    589         53.449845   0.000000
    590         53.455543   0.000000
    591         53.501244   0.000000
    592         53.506306   0.000000
    593         53.592711   0.000000
    594         53.597162   0.000000
    595         53.907606   0.000000
    596         53.911006   0.000000
    597         54.121098   0.000000
    598         54.125011   0.000000
    599         54.160474   0.000000
    600         54.162391   0.000000
    601         54.169461   0.000000
    602         54.173885   0.000000
    603         54.219563   0.000000
    604         54.239081   0.000000
    605         54.323955   0.000000
    606         54.327895   0.000000
    607         54.656387   0.000000
    608         54.658874   0.000000
    609         54.772359   0.000000
    610         54.774650   0.000000
    611         54.798580   0.000000
    612         54.803595   0.000000
    613         54.951979   0.000000
    614         54.955180   0.000000
    615         55.195723   0.000000
    616         55.199375   0.000000
    617         55.349031   0.000000
    618         55.352383   0.000000
    619         55.704785   0.000000
    620         55.713370   0.000000
    621         55.714281   0.000000
    622         55.718539   0.000000
    623         55.946278   0.000000
    624         55.950734   0.000000
    625         56.248154   0.000000
    626         56.257553   0.000000
    627         56.280758   0.000000
    628         56.285153   0.000000
    629         56.445259   0.000000
    630         56.455128   0.000000
    631         56.806480   0.000000
    632         56.811668   0.000000
    633         56.940124   0.000000
    634         56.971718   0.000000
    635         56.975579   0.000000
    636         56.990621   0.000000
    637         57.033866   0.000000
    638         57.034985   0.000000
    639         57.061954   0.000000
    640         57.063461   0.000000
    641         57.329520   0.000000
    642         57.331452   0.000000
    643         57.566352   0.000000
    644         57.575126   0.000000
    645         57.658760   0.000000
    646         57.662067   0.000000
    647         57.713326   0.000000
    648         57.723574   0.000000
    649         57.749389   0.000000
    650         57.751721   0.000000
    651         57.840952   0.000000
    652         57.849571   0.000000
    653         58.045356   0.000000
    654         58.050796   0.000000
    655         58.443193   0.000000
    656         58.466382   0.000000
    657         58.467844   0.000000
    658         58.482148   0.000000
    659         58.487983   0.000000
    660         58.493436   0.000000
    661         58.506976   0.000000
    662         58.516440   0.000000
    663         58.804121   0.000000
    664         58.810234   0.000000
    665         58.978030   0.000000
    666         58.983693   0.000000
    667         59.309516   0.000000
    668         59.313958   0.000000
    669         59.332877   0.000000
    670         59.343001   0.000000
    671         59.391513   0.000000
    672         59.394638   0.000000
    673         59.586952   0.000000
    674         59.597231   0.000000
    675         59.597362   0.000000
    676         59.610963   0.000000
    677         59.866727   0.000000
    678         59.869012   0.000000
    679         59.907736   0.000000
    680         59.910927   0.000000
    681         59.961678   0.000000
    682         59.984306   0.000000
    683         60.299880   0.000000
    684         60.324197   0.000000
    685         60.562923   0.000000
    686         60.567619   0.000000
    687         60.651481   0.000000
    688         60.655104   0.000000
    689         60.738022   0.000000
    690         60.751341   0.000000
    691         60.799431   0.000000
    692         60.806409   0.000000
    693         60.873963   0.000000
    694         60.902931   0.000000
    695         60.979566   0.000000
    696         61.009185   0.000000
    697         61.403823   0.000000
    698         61.409937   0.000000
    699         61.565793   0.000000
    700         61.593316   0.000000
    701         61.600197   0.000000
    702         61.602017   0.000000
    703         62.120556   0.000000
    704         62.124153   0.000000
    705         62.465392   0.000000
    706         62.473260   0.000000
    707         62.696267   0.000000
    708         62.699423   0.000000
    709         62.769274   0.000000
    710         62.785020   0.000000
    711         62.817613   0.000000
    712         62.840735   0.000000
    713         62.977530   0.000000
    714         62.983677   0.000000
    715         63.218738   0.000000
    716         63.248168   0.000000
    717         63.501091   0.000000
    718         63.512800   0.000000
    719         63.629635   0.000000
    720         63.636296   0.000000
    721         63.638265   0.000000
    722         63.655621   0.000000
    723         63.703864   0.000000
    724         63.707097   0.000000
    725         63.891182   0.000000
    726         63.898183   0.000000
    727         64.059028   0.000000
    728         64.064928   0.000000
    729         64.226102   0.000000
    730         64.228349   0.000000
    731         64.240605   0.000000
    732         64.244838   0.000000
    733         64.294879   0.000000
    734         64.316823   0.000000
    735         64.560385   0.000000
    736         64.567349   0.000000
    737         64.599321   0.000000
    738         64.607210   0.000000
    739         64.636119   0.000000
    740         64.643251   0.000000
    741         64.817823   0.000000
    742         64.820071   0.000000
    743         64.904962   0.000000
    744         64.915057   0.000000
    745         65.050422   0.000000
    746         65.053881   0.000000
    747         65.139758   0.000000
    748         65.144871   0.000000
    749         65.196538   0.000000
    750         65.200004   0.000000
    751         65.692987   0.000000
    752         65.695754   0.000000
    753         65.698403   0.000000
    754         65.709719   0.000000
    755         65.763941   0.000000
    756         65.766584   0.000000
    757         65.944994   0.000000
    758         65.954716   0.000000
    759         66.016220   0.000000
    760         66.020078   0.000000
    761         66.113318   0.000000
    762         66.117798   0.000000
    763         66.399334   0.000000
    764         66.402344   0.000000
    765         66.984870   0.000000
    766         67.041976   0.000000
    767         67.186415   0.000000
    768         67.188715   0.000000
    769         67.203917   0.000000
    770         67.205987   0.000000
    771         67.302730   0.000000
    772         67.317672   0.000000
    773         67.718803   0.000000
    774         67.723174   0.000000
    775         67.729379   0.000000
    776         67.753455   0.000000
    777         67.908964   0.000000
    778         67.910186   0.000000
    779         68.000157   0.000000
    780         68.007982   0.000000
    781         68.129154   0.000000
    782         68.134665   0.000000
    783         68.255526   0.000000
    784         68.258347   0.000000
    785         68.552050   0.000000
    786         68.562483   0.000000
    787         68.601361   0.000000
    788         68.631168   0.000000
    789         68.835382   0.000000
    790         68.853045   0.000000
    791         69.183360   0.000000
    792         69.225482   0.000000
    793         69.286304   0.000000
    794         69.384511   0.000000
    795         69.448236   0.000000
    796         69.507465   0.000000
    797         69.601556   0.000000
    798         69.769616   0.000000
    799         69.873398   0.000000
    800         70.030376   0.000000
