    5    5    1    1
  0.2831349E+02  0.9841063E-09  0.9841063E-09  0.9841063E-09  0.5000000E-15
  1.000000000000000E-004
  CAR 
 noscf                                   
     48      1    600
 
  0.0000000E+00  0.0000000E+00  0.0000000E+00  0.1000000E+01
      1        -19.686564   1.000000
      2        -19.686564   1.000000
      3        -19.686306   1.000000
      4        -19.686306   1.000000
      5        -19.673911   1.000000
      6        -19.673911   1.000000
      7        -19.671591   1.000000
      8        -19.671591   1.000000
      9        -16.723296   1.000000
     10        -16.723296   1.000000
     11        -16.721109   1.000000
     12        -16.721109   1.000000
     13        -16.704539   1.000000
     14        -16.704539   1.000000
     15        -16.701468   1.000000
     16        -16.701468   1.000000
     17        -16.700041   1.000000
     18        -16.700041   1.000000
     19        -16.699059   1.000000
     20        -16.699059   1.000000
     21         -9.361450   1.000000
     22         -9.361450   1.000000
     23         -8.133996   1.000000
     24         -8.133996   1.000000
     25         -8.085473   1.000000
     26         -8.085473   1.000000
     27         -4.772231   1.000000
     28         -4.772231   1.000000
     29         -4.005454   1.000000
     30         -4.005454   1.000000
     31          2.294234   1.000000
     32          2.294234   1.000000
     33          2.500882   1.000000
     34          2.500882   1.000000
     35          3.069800   1.000000
     36          3.069800   1.000000
     37          3.226702   1.000000
     38          3.226702   1.000000
     39          3.230403   1.000000
     40          3.230403   1.000000
     41          3.576022   1.000000
     42          3.576022   1.000000
     43          3.884451   1.000000
     44          3.884451   1.000000
     45          4.268169   1.000000
     46          4.268170   1.000000
     47          4.665438   1.000000
     48          4.665438   1.000000
     49          5.114245   0.000000
     50          5.114245   0.000000
     51          6.168863   0.000000
     52          6.168863   0.000000
     53          6.432202   0.000000
     54          6.432202   0.000000
     55          6.878629   0.000000
     56          6.878629   0.000000
     57          8.093888   0.000000
     58          8.094128   0.000000
     59          8.469390   0.000000
     60          8.469645   0.000000
     61         10.780573   0.000000
     62         10.781223   0.000000
     63         11.368184   0.000000
     64         11.368457   0.000000
     65         11.924777   0.000000
     66         11.925078   0.000000
     67         12.001323   0.000000
     68         12.001689   0.000000
     69         12.251114   0.000000
     70         12.251136   0.000000
     71         12.672244   0.000000
     72         12.672598   0.000000
     73         12.676359   0.000000
     74         12.676860   0.000000
     75         13.466835   0.000000
     76         13.467321   0.000000
     77         13.468227   0.000000
     78         13.468845   0.000000
     79         13.826922   0.000000
     80         13.827185   0.000000
     81         14.594800   0.000000
     82         14.594925   0.000000
     83         14.753702   0.000000
     84         14.753748   0.000000
     85         15.825010   0.000000
     86         15.825197   0.000000
     87         16.163685   0.000000
     88         16.163790   0.000000
     89         16.270250   0.000000
     90         16.270310   0.000000
     91         16.965499   0.000000
     92         16.965807   0.000000
     93         17.000623   0.000000
     94         17.001290   0.000000
     95         17.620820   0.000000
     96         17.621033   0.000000
     97         17.979268   0.000000
     98         17.979585   0.000000
     99         18.375027   0.000000
    100         18.375290   0.000000
    101         19.265725   0.000000
    102         19.266262   0.000000
    103         19.412282   0.000000
    104         19.412689   0.000000
    105         20.762054   0.000000
    106         20.762350   0.000000
    107         22.813420   0.000000
    108         22.813626   0.000000
    109         23.138006   0.000000
    110         23.138251   0.000000
    111         23.951353   0.000000
    112         23.951755   0.000000
    113         24.059436   0.000000
    114         24.059683   0.000000
    115         24.410352   0.000000
    116         24.410958   0.000000
    117         25.112659   0.000000
    118         25.113050   0.000000
    119         25.120373   0.000000
    120         25.120559   0.000000
    121         25.559829   0.000000
    122         25.560174   0.000000
    123         25.583914   0.000000
    124         25.584354   0.000000
    125         25.692296   0.000000
    126         25.692665   0.000000
    127         26.854010   0.000000
    128         26.854153   0.000000
    129         27.007831   0.000000
    130         27.008334   0.000000
    131         27.171919   0.000000
    132         27.172383   0.000000
    133         27.288009   0.000000
    134         27.288199   0.000000
    135         28.763288   0.000000
    136         28.763677   0.000000
    137         28.966683   0.000000
    138         28.966956   0.000000
    139         29.044666   0.000000
    140         29.044756   0.000000
    141         29.127637   0.000000
    142         29.128056   0.000000
    143         29.417680   0.000000
    144         29.418309   0.000000
    145         29.736272   0.000000
    146         29.736633   0.000000
    147         30.134185   0.000000
    148         30.134625   0.000000
    149         30.403778   0.000000
    150         30.403963   0.000000
    151         30.551920   0.000000
    152         30.552247   0.000000
    153         30.888745   0.000000
    154         30.888905   0.000000
    155         31.029523   0.000000
    156         31.029735   0.000000
    157         31.098063   0.000000
    158         31.098213   0.000000
    159         31.359411   0.000000
    160         31.359639   0.000000
    161         31.555590   0.000000
    162         31.555757   0.000000
    163         31.593758   0.000000
    164         31.594059   0.000000
    165         31.722635   0.000000
    166         31.723367   0.000000
    167         32.869978   0.000000
    168         32.870083   0.000000
    169         32.919990   0.000000
    170         32.920257   0.000000
    171         33.629612   0.000000
    172         33.629859   0.000000
    173         34.158806   0.000000
    174         34.158994   0.000000
    175         34.163284   0.000000
    176         34.163593   0.000000
    177         34.862099   0.000000
    178         34.862236   0.000000
    179         35.125169   0.000000
    180         35.125346   0.000000
    181         35.269969   0.000000
    182         35.270036   0.000000
    183         35.563931   0.000000
    184         35.564566   0.000000
    185         35.604293   0.000000
    186         35.604525   0.000000
    187         35.872200   0.000000
    188         35.872317   0.000000
    189         35.878288   0.000000
    190         35.878675   0.000000
    191         35.878754   0.000000
    192         35.879338   0.000000
    193         35.885733   0.000000
    194         35.886169   0.000000
    195         35.935392   0.000000
    196         35.935631   0.000000
    197         37.071670   0.000000
    198         37.071855   0.000000
    199         37.646582   0.000000
    200         37.647014   0.000000
    201         37.748756   0.000000
    202         37.748957   0.000000
    203         37.822559   0.000000
    204         37.822934   0.000000
    205         38.202630   0.000000
    206         38.202899   0.000000
    207         38.310408   0.000000
    208         38.310869   0.000000
    209         38.319391   0.000000
    210         38.319540   0.000000
    211         38.395203   0.000000
    212         38.395825   0.000000
    213         38.867707   0.000000
    214         38.868408   0.000000
    215         38.876095   0.000000
    216         38.876977   0.000000
    217         39.161685   0.000000
    218         39.162006   0.000000
    219         39.292364   0.000000
    220         39.292875   0.000000
    221         39.615330   0.000000
    222         39.615569   0.000000
    223         40.803789   0.000000
    224         40.804246   0.000000
    225         40.898207   0.000000
    226         40.898839   0.000000
    227         41.070041   0.000000
    228         41.070332   0.000000
    229         41.253809   0.000000
    230         41.253943   0.000000
    231         42.250498   0.000000
    232         42.250970   0.000000
    233         42.492536   0.000000
    234         42.492806   0.000000
    235         42.648895   0.000000
    236         42.649383   0.000000
    237         42.670307   0.000000
    238         42.670532   0.000000
    239         42.671146   0.000000
    240         42.671439   0.000000
    241         43.238539   0.000000
    242         43.239623   0.000000
    243         43.598885   0.000000
    244         43.599641   0.000000
    245         43.724112   0.000000
    246         43.724745   0.000000
    247         44.086420   0.000000
    248         44.086525   0.000000
    249         44.092610   0.000000
    250         44.092856   0.000000
    251         44.178983   0.000000
    252         44.179422   0.000000
    253         44.248545   0.000000
    254         44.248766   0.000000
    255         44.324143   0.000000
    256         44.324490   0.000000
    257         44.549877   0.000000
    258         44.550400   0.000000
    259         44.551566   0.000000
    260         44.551823   0.000000
    261         44.560479   0.000000
    262         44.560950   0.000000
    263         44.611227   0.000000
    264         44.611713   0.000000
    265         45.400511   0.000000
    266         45.400762   0.000000
    267         45.432443   0.000000
    268         45.432719   0.000000
    269         45.901083   0.000000
    270         45.902047   0.000000
    271         46.286585   0.000000
    272         46.286997   0.000000
    273         46.593759   0.000000
    274         46.594862   0.000000
    275         46.635174   0.000000
    276         46.635895   0.000000
    277         46.730001   0.000000
    278         46.730232   0.000000
    279         46.833520   0.000000
    280         46.834620   0.000000
    281         47.018359   0.000000
    282         47.020287   0.000000
    283         47.623539   0.000000
    284         47.624111   0.000000
    285         47.784406   0.000000
    286         47.785463   0.000000
    287         47.966873   0.000000
    288         47.969197   0.000000
    289         48.245540   0.000000
    290         48.250549   0.000000
    291         48.264723   0.000000
    292         48.265662   0.000000
    293         48.931276   0.000000
    294         48.932357   0.000000
    295         49.490973   0.000000
    296         49.491661   0.000000
    297         49.491935   0.000000
    298         49.492648   0.000000
    299         49.582340   0.000000
    300         49.582911   0.000000
    301         49.586701   0.000000
    302         49.587453   0.000000
    303         50.274108   0.000000
    304         50.274959   0.000000
    305         50.328020   0.000000
    306         50.328524   0.000000
    307         50.459012   0.000000
    308         50.459622   0.000000
    309         50.669373   0.000000
    310         50.669914   0.000000
    311         51.857432   0.000000
    312         51.857980   0.000000
    313         51.885152   0.000000
    314         51.885327   0.000000
    315         52.081004   0.000000
    316         52.082613   0.000000
    317         52.128084   0.000000
    318         52.128879   0.000000
    319         52.567711   0.000000
    320         52.568685   0.000000
    321         52.595522   0.000000
    322         52.596220   0.000000
    323         52.761460   0.000000
    324         52.762495   0.000000
    325         52.854206   0.000000
    326         52.854527   0.000000
    327         53.045300   0.000000
    328         53.045763   0.000000
    329         53.158710   0.000000
    330         53.158912   0.000000
    331         53.259240   0.000000
    332         53.259736   0.000000
    333         53.868090   0.000000
    334         53.870385   0.000000
    335         53.882804   0.000000
    336         53.883617   0.000000
    337         53.963610   0.000000
    338         53.963931   0.000000
    339         54.426715   0.000000
    340         54.428303   0.000000
    341         54.470396   0.000000
    342         54.471076   0.000000
    343         55.066732   0.000000
    344         55.067190   0.000000
    345         55.232819   0.000000
    346         55.234380   0.000000
    347         55.257816   0.000000
    348         55.258631   0.000000
    349         55.321082   0.000000
    350         55.321691   0.000000
    351         55.323628   0.000000
    352         55.324477   0.000000
    353         55.518748   0.000000
    354         55.521635   0.000000
    355         56.148553   0.000000
    356         56.153413   0.000000
    357         56.496186   0.000000
    358         56.498093   0.000000
    359         57.840729   0.000000
    360         57.843104   0.000000
    361         58.019055   0.000000
    362         58.019631   0.000000
    363         58.020081   0.000000
    364         58.021062   0.000000
    365         58.673840   0.000000
    366         58.676747   0.000000
    367         59.292291   0.000000
    368         59.293855   0.000000
    369         59.353190   0.000000
    370         59.353661   0.000000
    371         59.738108   0.000000
    372         59.738621   0.000000
    373         61.065089   0.000000
    374         61.066401   0.000000
    375         61.167653   0.000000
    376         61.169321   0.000000
    377         61.181683   0.000000
    378         61.183142   0.000000
    379         61.603883   0.000000
    380         61.606081   0.000000
    381         61.712941   0.000000
    382         61.716540   0.000000
    383         62.148104   0.000000
    384         62.149688   0.000000
    385         62.174084   0.000000
    386         62.175854   0.000000
    387         62.213191   0.000000
    388         62.215837   0.000000
    389         62.504450   0.000000
    390         62.505930   0.000000
    391         62.524600   0.000000
    392         62.526936   0.000000
    393         63.343575   0.000000
    394         63.345412   0.000000
    395         63.372481   0.000000
    396         63.376515   0.000000
    397         63.846444   0.000000
    398         63.849678   0.000000
    399         63.910037   0.000000
    400         63.912812   0.000000
    401         63.945599   0.000000
    402         63.948287   0.000000
    403         64.008660   0.000000
    404         64.010764   0.000000
    405         64.017563   0.000000
    406         64.019201   0.000000
    407         64.549651   0.000000
    408         64.551596   0.000000
    409         64.863783   0.000000
    410         64.869471   0.000000
    411         66.952684   0.000000
    412         66.962552   0.000000
    413         67.001149   0.000000
    414         67.006907   0.000000
    415         67.165543   0.000000
    416         67.171303   0.000000
    417         67.288101   0.000000
    418         67.288852   0.000000
    419         67.294291   0.000000
    420         67.303438   0.000000
    421         68.205566   0.000000
    422         68.208858   0.000000
    423         68.356744   0.000000
    424         68.365553   0.000000
    425         68.372253   0.000000
    426         68.376469   0.000000
    427         68.759951   0.000000
    428         68.767230   0.000000
    429         68.772490   0.000000
    430         68.780243   0.000000
    431         69.361879   0.000000
    432         69.366491   0.000000
    433         69.422344   0.000000
    434         69.443883   0.000000
    435         69.680207   0.000000
    436         69.693085   0.000000
    437         69.717331   0.000000
    438         69.723935   0.000000
    439         69.747769   0.000000
    440         69.749635   0.000000
    441         69.870226   0.000000
    442         69.887646   0.000000
    443         69.951801   0.000000
    444         69.958797   0.000000
    445         70.886408   0.000000
    446         70.905125   0.000000
    447         71.210982   0.000000
    448         71.227638   0.000000
    449         72.257547   0.000000
    450         72.266777   0.000000
    451         72.569843   0.000000
    452         72.577134   0.000000
    453         72.795784   0.000000
    454         72.814856   0.000000
    455         72.822051   0.000000
    456         72.828916   0.000000
    457         72.938165   0.000000
    458         72.949123   0.000000
    459         73.199519   0.000000
    460         73.200821   0.000000
    461         73.209509   0.000000
    462         73.219233   0.000000
    463         73.230223   0.000000
    464         73.243266   0.000000
    465         73.420194   0.000000
    466         73.438352   0.000000
    467         74.311632   0.000000
    468         74.333717   0.000000
    469         74.356060   0.000000
    470         74.374856   0.000000
    471         74.440431   0.000000
    472         74.460461   0.000000
    473         74.485462   0.000000
    474         74.498938   0.000000
    475         74.801188   0.000000
    476         74.823072   0.000000
    477         74.955743   0.000000
    478         74.963448   0.000000
    479         74.979462   0.000000
    480         75.002458   0.000000
    481         75.076138   0.000000
    482         75.101705   0.000000
    483         75.121818   0.000000
    484         75.157694   0.000000
    485         75.228138   0.000000
    486         75.265801   0.000000
    487         75.293762   0.000000
    488         75.300280   0.000000
    489         75.442800   0.000000
    490         75.468706   0.000000
    491         76.221442   0.000000
    492         76.249986   0.000000
    493         76.357723   0.000000
    494         76.391779   0.000000
    495         77.079173   0.000000
    496         77.112606   0.000000
    497         77.146242   0.000000
    498         77.159453   0.000000
    499         77.203404   0.000000
    500         77.225215   0.000000
    501         77.395804   0.000000
    502         77.422414   0.000000
    503         77.497460   0.000000
    504         77.522542   0.000000
    505         77.531843   0.000000
    506         77.553721   0.000000
    507         77.565378   0.000000
    508         77.610706   0.000000
    509         78.232762   0.000000
    510         78.280738   0.000000
    511         78.768391   0.000000
    512         78.781667   0.000000
    513         78.821992   0.000000
    514         78.855178   0.000000
    515         79.122840   0.000000
    516         79.167857   0.000000
    517         79.587795   0.000000
    518         79.646958   0.000000
    519         79.681553   0.000000
    520         79.702105   0.000000
    521         79.726854   0.000000
    522         79.781332   0.000000
    523         79.825049   0.000000
    524         79.879623   0.000000
    525         79.889469   0.000000
    526         79.933364   0.000000
    527         79.978563   0.000000
    528         80.069017   0.000000
    529         80.419507   0.000000
    530         80.455850   0.000000
    531         80.474969   0.000000
    532         80.542373   0.000000
    533         80.598695   0.000000
    534         80.624467   0.000000
    535         80.649946   0.000000
    536         80.677589   0.000000
    537         80.722897   0.000000
    538         80.751470   0.000000
    539         80.786376   0.000000
    540         80.823702   0.000000
    541         80.882443   0.000000
    542         80.913784   0.000000
    543         80.948799   0.000000
    544         80.978936   0.000000
    545         81.027412   0.000000
    546         81.041603   0.000000
    547         81.114750   0.000000
    548         81.153546   0.000000
    549         81.239569   0.000000
    550         81.316238   0.000000
    551         81.357755   0.000000
    552         81.439198   0.000000
    553         81.453687   0.000000
    554         81.539802   0.000000
    555         81.723527   0.000000
    556         81.744531   0.000000
    557         81.786235   0.000000
    558         81.831186   0.000000
    559         81.911676   0.000000
    560         81.922543   0.000000
    561         81.954134   0.000000
    562         82.052336   0.000000
    563         82.162909   0.000000
    564         82.194326   0.000000
    565         82.305285   0.000000
    566         82.397742   0.000000
    567         82.505007   0.000000
    568         82.568284   0.000000
    569         82.715767   0.000000
    570         82.856798   0.000000
    571         82.884397   0.000000
    572         83.064971   0.000000
    573         83.189143   0.000000
    574         83.329736   0.000000
    575         83.447587   0.000000
    576         83.573790   0.000000
    577         83.806637   0.000000
    578         83.869770   0.000000
    579         84.068137   0.000000
    580         84.247684   0.000000
    581         84.550563   0.000000
    582         84.709765   0.000000
    583         84.775089   0.000000
    584         84.985522   0.000000
    585         85.081176   0.000000
    586         85.132013   0.000000
    587         85.465993   0.000000
    588         85.607307   0.000000
    589         85.770665   0.000000
    590         86.003919   0.000000
    591         86.129960   0.000000
    592         86.574182   0.000000
    593         86.655247   0.000000
    594         86.872691   0.000000
    595         86.985120   0.000000
    596         87.052427   0.000000
    597         87.202293   0.000000
    598         87.376361   0.000000
    599         87.607930   0.000000
    600         87.819147   0.000000
